 CRYSTAL
 PRIMVEC
    1.0000000000    0.0000000000    0.0000000000
    0.0000000000 1000.0000000000    0.0000000000
    0.0000000000    0.0000000000 1000.0000000000
 PRIMCOORD
          1           1
   Cu 0.0 0.0 0.0