 CRYSTAL
 PRIMVEC
    1.0000000000    0.0000000000    0.0000000000
    0.0000000000 1000.0000000000    0.0000000000
    0.0000000000    0.0000000000 1000.0000000000
 PRIMCOORD
          2           1
   Cu 0.25 0.0 0.0
   Cu 0.75 0.0 0.0
