 CRYSTAL
 PRIMVEC
    5.0000000000    0.0000000000    0.0000000000
    0.0000000000    5.0000000000    0.0000000000
    0.0000000000    0.0000000000    5.0000000000
 PRIMCOORD
          1           1
   Cu 0.0 0.0 0.0